V -t * -v 1.0a5 -a 0
W -t * -x 1000 -y 300
A -t * -n 1 -p 0 -o 0x7fffffff -c 30 -a 1
A -t * -h 1 -m 1073741823 -s 0
n -t 0.000000 -s 0 -x 951.524439 -y 217.293654 -U 5.211400 -V -8.225524 -T 9.183907
n -t 0.000000 -s 1 -x 726.406435 -y 253.886992 -U 3.006125 -V -5.377496 -T 41.301445
n -t 0.000000 -s 2 -x 559.889909 -y 288.399603 -U 17.908558 -V -2.688434 -T 24.232522
n -t 0.000000 -s 3 -x 474.333792 -y 189.629180 -U 1.396533 -V -0.088070 -T 182.618352
n -t 0.000000 -s 4 -x 786.155521 -y 165.946779 -U 5.145611 -V 0.603290 -T 18.094857
n -t 0.000000 -s 5 -x 876.005997 -y 256.955837 -U -14.770988 -V -2.604763 -T 51.770397
n -t 0.000000 -s 6 -x 428.777261 -y 81.801038 -U 12.491886 -V -1.750493 -T 26.731499
n -t 0.000000 -s 7 -x 66.249153 -y 70.242529 -U 4.854704 -V 0.795052 -T 178.721859
n -t 0.000000 -s 8 -x 58.604181 -y 19.541031 -U 1.914766 -V 0.423739 -T 154.275332
n -t 0.000000 -s 9 -x 746.132770 -y 134.736309 -U -4.541926 -V 1.894444 -T 33.221103
n -t 0.000000 -s 10 -x 108.324384 -y 156.559655 -U 1.592414 -V 0.295021 -T 286.709166
n -t 0.000000 -s 11 -x 241.008817 -y 215.047358 -U -6.063120 -V -12.347116 -T 9.616986
n -t 0.000000 -s 12 -x 406.425153 -y 290.727967 -U -17.368416 -V -9.888209 -T 23.139917
n -t 0.000000 -s 13 -x 430.926437 -y 271.536572 -U 10.030452 -V -10.224398 -T 14.054714
n -t 0.000000 -s 14 -x 972.455312 -y 215.857481 -U -5.371038 -V -5.236574 -T 18.246741
n -t 0.000000 -s 15 -x 404.506831 -y 148.343752 -U 10.501498 -V -0.542096 -T 53.408486
n -t 0.000000 -s 16 -x 884.225485 -y 65.928269 -U -8.474380 -V 2.791723 -T 43.694414
n -t 0.000000 -s 17 -x 21.276308 -y 20.387235 -U 2.375332 -V 16.646939 -T 9.677279
n -t 0.000000 -s 18 -x 801.994413 -y 252.810404 -U -14.028128 -V 0.306883 -T 29.715081
n -t 0.000000 -s 19 -x 280.931480 -y 244.220586 -U 0.600628 -V -0.157068 -T 836.341888
n -t 0.000000 -s 20 -x 848.766327 -y 193.229992 -U -1.829490 -V -1.508121 -T 62.436263
n -t 0.000000 -s 21 -x 551.810686 -y 115.073732 -U 1.898081 -V 0.700387 -T 57.431689
n -t 0.000000 -s 22 -x 273.213110 -y 207.636513 -U -0.538180 -V -7.624242 -T 11.085918
n -t 0.000000 -s 23 -x 351.457317 -y 98.964456 -U 4.323223 -V 0.353656 -T 40.387817
n -t 0.000000 -s 24 -x 472.692079 -y 100.439633 -U -15.334441 -V 0.229403 -T 20.445851
n -t 0.000000 -s 25 -x 675.539607 -y 297.245665 -U 13.579656 -V -10.454554 -T 11.904854
n -t 0.000000 -s 26 -x 201.249337 -y 293.824218 -U -1.309091 -V -10.844157 -T 25.627095
n -t 0.000000 -s 27 -x 862.713257 -y 31.462837 -U -10.355254 -V 5.022013 -T 47.829568
n -t 0.000000 -s 28 -x 718.375428 -y 239.562217 -U 10.500754 -V -0.028379 -T 15.224073
n -t 0.000000 -s 29 -x 497.329424 -y 77.841875 -U 13.974863 -V 2.801753 -T 4.018426
n -t 0.000000 -s 30 -x 514.511653 -y 169.137442 -U -19.530489 -V -0.309596 -T 21.058106
n -t 0.000000 -s 31 -x 862.570271 -y 5.064792 -U -11.779491 -V 2.540762 -T 14.124843
n -t 0.000000 -s 32 -x 756.294146 -y 122.347658 -U -10.825358 -V 3.235147 -T 21.966280
n -t 0.000000 -s 33 -x 86.212062 -y 7.858096 -U 5.771889 -V 1.667249 -T 149.212997
n -t 0.000000 -s 34 -x 836.502804 -y 193.211357 -U -1.593941 -V 0.272555 -T 322.212690
n -t 0.000000 -s 35 -x 362.247637 -y 78.844017 -U -14.483275 -V -0.130191 -T 16.402241
n -t 0.000000 -s 36 -x 736.337879 -y 102.182991 -U -7.149745 -V 1.571454 -T 68.909732
n -t 0.000000 -s 37 -x 814.838681 -y 8.528441 -U -10.767428 -V 1.089494 -T 46.852158
n -t 0.000000 -s 38 -x 842.986026 -y 235.206399 -U -15.333889 -V -5.883630 -T 31.659349
n -t 0.000000 -s 39 -x 425.145664 -y 1.580547 -U -16.359868 -V 1.064163 -T 13.972956
n -t 0.000000 -s 40 -x 31.232079 -y 240.312496 -U 10.397143 -V -4.317700 -T 20.234403
n -t 0.000000 -s 41 -x 551.261714 -y 41.696795 -U -3.842640 -V 13.860274 -T 17.397179
n -t 0.000000 -s 42 -x 313.382045 -y 166.527119 -U 8.563822 -V -1.397519 -T 76.638756
n -t 0.000000 -s 43 -x 196.668494 -y 298.204158 -U 3.550445 -V -0.154745 -T 189.598843
n -t 0.000000 -s 44 -x 907.650133 -y 112.481012 -U 7.367883 -V 15.209957 -T 10.670732
n -t 0.000000 -s 45 -x 268.853151 -y 223.286596 -U 17.767200 -V 1.820303 -T 21.552249
n -t 0.000000 -s 46 -x 89.497598 -y 242.310454 -U 15.842171 -V -1.550407 -T 47.218284
n -t 0.000000 -s 47 -x 85.580514 -y 176.516656 -U 3.764825 -V -0.974893 -T 102.218215
n -t 0.000000 -s 48 -x 456.496415 -y 232.518184 -U 4.674388 -V -3.300587 -T 65.976475
n -t 0.000000 -s 49 -x 759.891603 -y 255.328944 -U -8.004379 -V -5.719577 -T 11.890649
+ -t 2.556838879 -s 1 -d -1 -p cbr -e 512 -c 2 -a 0 -i 0 -k AGT 
- -t 2.556838879 -s 1 -d -1 -p cbr -e 512 -c 2 -a 0 -i 0 -k AGT
h -t 2.556838879 -s 1 -d -1 -p cbr -e 512 -c 2 -a 0 -i 0 -k AGT
+ -t 2.556838879 -s 1 -d -1 -p AODV -e 48 -c 2 -a 0 -i 0 -k RTR 
- -t 2.556838879 -s 1 -d -1 -p AODV -e 48 -c 2 -a 0 -i 0 -k RTR
h -t 2.556838879 -s 1 -d -1 -p AODV -e 48 -c 2 -a 0 -i 0 -k RTR
r -t 2.557826897 -s 49 -d -1 -p AODV -e 48 -c 2 -a 0 -i 0 -k RTR
r -t 2.557826916 -s 28 -d -1 -p AODV -e 48 -c 2 -a 0 -i 0 -k RTR
r -t 2.557826995 -s 18 -d -1 -p AODV -e 48 -c 2 -a 0 -i 0 -k RTR
r -t 2.557827007 -s 25 -d -1 -p AODV -e 48 -c 2 -a 0 -i 0 -k RTR
r -t 2.557827120 -s 38 -d -1 -p AODV -e 48 -c 2 -a 0 -i 0 -k RTR
r -t 2.557827204 -s 4 -d -1 -p AODV -e 48 -c 2 -a 0 -i 0 -k RTR
r -t 2.557827214 -s 9 -d -1 -p AODV -e 48 -c 2 -a 0 -i 0 -k RTR
r -t 2.557827227 -s 5 -d -1 -p AODV -e 48 -c 2 -a 0 -i 0 -k RTR
r -t 2.557827241 -s 34 -d -1 -p AODV -e 48 -c 2 -a 0 -i 0 -k RTR
r -t 2.557827244 -s 32 -d -1 -p AODV -e 48 -c 2 -a 0 -i 0 -k RTR
r -t 2.557827283 -s 20 -d -1 -p AODV -e 48 -c 2 -a 0 -i 0 -k RTR
r -t 2.557827328 -s 36 -d -1 -p AODV -e 48 -c 2 -a 0 -i 0 -k RTR
r -t 2.557827328 -s 2 -d -1 -p AODV -e 48 -c 2 -a 0 -i 0 -k RTR
+ -t 2.557827328 -s 2 -d 1 -p AODV -e 44 -c 2 -a 0 -i 0 -k RTR 
- -t 2.557827328 -s 2 -d 1 -p AODV -e 44 -c 2 -a 0 -i 0 -k RTR
h -t 2.557827328 -s 2 -d 1 -p AODV -e 44 -c 2 -a 0 -i 0 -k RTR
r -t 2.557827581 -s 16 -d -1 -p AODV -e 48 -c 2 -a 0 -i 0 -k RTR
r -t 2.557827585 -s 44 -d -1 -p AODV -e 48 -c 2 -a 0 -i 0 -k RTR
r -t 2.557827599 -s 21 -d -1 -p AODV -e 48 -c 2 -a 0 -i 0 -k RTR
r -t 2.557827615 -s 27 -d -1 -p AODV -e 48 -c 2 -a 0 -i 0 -k RTR
r -t 2.557827638 -s 14 -d -1 -p AODV -e 48 -c 2 -a 0 -i 0 -k RTR
r -t 2.557827662 -s 0 -d -1 -p AODV -e 48 -c 2 -a 0 -i 0 -k RTR
r -t 2.557827662 -s 37 -d -1 -p AODV -e 48 -c 2 -a 0 -i 0 -k RTR
r -t 2.557827708 -s 31 -d -1 -p AODV -e 48 -c 2 -a 0 -i 0 -k RTR
+ -t 2.558255228 -s 20 -d -1 -p AODV -e 48 -c 2 -a 0 -i 0 -k RTR 
- -t 2.558255228 -s 20 -d -1 -p AODV -e 48 -c 2 -a 0 -i 0 -k RTR
h -t 2.558255228 -s 20 -d -1 -p AODV -e 48 -c 2 -a 0 -i 0 -k RTR
+ -t 2.558708123 -s 49 -d -1 -p AODV -e 48 -c 2 -a 0 -i 0 -k RTR 
- -t 2.558708123 -s 49 -d -1 -p AODV -e 48 -c 2 -a 0 -i 0 -k RTR
h -t 2.558708123 -s 49 -d -1 -p AODV -e 48 -c 2 -a 0 -i 0 -k RTR
+ -t 2.558769026 -s 14 -d -1 -p AODV -e 48 -c 2 -a 0 -i 0 -k RTR 
- -t 2.558769026 -s 14 -d -1 -p AODV -e 48 -c 2 -a 0 -i 0 -k RTR
h -t 2.558769026 -s 14 -d -1 -p AODV -e 48 -c 2 -a 0 -i 0 -k RTR
+ -t 2.558965664 -s 16 -d -1 -p AODV -e 48 -c 2 -a 0 -i 0 -k RTR 
- -t 2.558965664 -s 16 -d -1 -p AODV -e 48 -c 2 -a 0 -i 0 -k RTR
h -t 2.558965664 -s 16 -d -1 -p AODV -e 48 -c 2 -a 0 -i 0 -k RTR
+ -t 2.559468698 -s 32 -d -1 -p AODV -e 48 -c 2 -a 0 -i 0 -k RTR 
- -t 2.559468698 -s 32 -d -1 -p AODV -e 48 -c 2 -a 0 -i 0 -k RTR
h -t 2.559468698 -s 32 -d -1 -p AODV -e 48 -c 2 -a 0 -i 0 -k RTR
+ -t 2.559575667 -s 27 -d -1 -p AODV -e 48 -c 2 -a 0 -i 0 -k RTR 
- -t 2.559575667 -s 27 -d -1 -p AODV -e 48 -c 2 -a 0 -i 0 -k RTR
h -t 2.559575667 -s 27 -d -1 -p AODV -e 48 -c 2 -a 0 -i 0 -k RTR
r -t 2.559836141 -s 1 -d -1 -p AODV -e 48 -c 2 -a 0 -i 0 -k RTR
r -t 2.559836143 -s 28 -d -1 -p AODV -e 48 -c 2 -a 0 -i 0 -k RTR
r -t 2.559836222 -s 18 -d -1 -p AODV -e 48 -c 2 -a 0 -i 0 -k RTR
r -t 2.559836262 -s 25 -d -1 -p AODV -e 48 -c 2 -a 0 -i 0 -k RTR
r -t 2.559836348 -s 38 -d -1 -p AODV -e 48 -c 2 -a 0 -i 0 -k RTR
r -t 2.559836439 -s 4 -d -1 -p AODV -e 48 -c 2 -a 0 -i 0 -k RTR
r -t 2.559836454 -s 5 -d -1 -p AODV -e 48 -c 2 -a 0 -i 0 -k RTR
r -t 2.559836461 -s 9 -d -1 -p AODV -e 48 -c 2 -a 0 -i 0 -k RTR
r -t 2.559836470 -s 34 -d -1 -p AODV -e 48 -c 2 -a 0 -i 0 -k RTR
r -t 2.559836492 -s 32 -d -1 -p AODV -e 48 -c 2 -a 0 -i 0 -k RTR
r -t 2.559836512 -s 20 -d -1 -p AODV -e 48 -c 2 -a 0 -i 0 -k RTR
r -t 2.559836577 -s 36 -d -1 -p AODV -e 48 -c 2 -a 0 -i 0 -k RTR
r -t 2.559836589 -s 2 -d -1 -p AODV -e 48 -c 2 -a 0 -i 0 -k RTR
r -t 2.559836814 -s 44 -d -1 -p AODV -e 48 -c 2 -a 0 -i 0 -k RTR
r -t 2.559836817 -s 16 -d -1 -p AODV -e 48 -c 2 -a 0 -i 0 -k RTR
r -t 2.559836853 -s 27 -d -1 -p AODV -e 48 -c 2 -a 0 -i 0 -k RTR
r -t 2.559836859 -s 21 -d -1 -p AODV -e 48 -c 2 -a 0 -i 0 -k RTR
r -t 2.559836865 -s 14 -d -1 -p AODV -e 48 -c 2 -a 0 -i 0 -k RTR
r -t 2.559836889 -s 0 -d -1 -p AODV -e 48 -c 2 -a 0 -i 0 -k RTR
r -t 2.559836904 -s 37 -d -1 -p AODV -e 48 -c 2 -a 0 -i 0 -k RTR
r -t 2.559836948 -s 31 -d -1 -p AODV -e 48 -c 2 -a 0 -i 0 -k RTR
+ -t 2.560173222 -s 4 -d -1 -p AODV -e 48 -c 2 -a 0 -i 0 -k RTR 
- -t 2.560173222 -s 4 -d -1 -p AODV -e 48 -c 2 -a 0 -i 0 -k RTR
h -t 2.560173222 -s 4 -d -1 -p AODV -e 48 -c 2 -a 0 -i 0 -k RTR
+ -t 2.560408588 -s 31 -d -1 -p AODV -e 48 -c 2 -a 0 -i 0 -k RTR 
- -t 2.560408588 -s 31 -d -1 -p AODV -e 48 -c 2 -a 0 -i 0 -k RTR
h -t 2.560408588 -s 31 -d -1 -p AODV -e 48 -c 2 -a 0 -i 0 -k RTR
+ -t 2.560918018 -s 5 -d -1 -p AODV -e 48 -c 2 -a 0 -i 0 -k RTR 
- -t 2.560918018 -s 5 -d -1 -p AODV -e 48 -c 2 -a 0 -i 0 -k RTR
h -t 2.560918018 -s 5 -d -1 -p AODV -e 48 -c 2 -a 0 -i 0 -k RTR
+ -t 2.560956625 -s 25 -d -1 -p AODV -e 48 -c 2 -a 0 -i 0 -k RTR 
- -t 2.560956625 -s 25 -d -1 -p AODV -e 48 -c 2 -a 0 -i 0 -k RTR
h -t 2.560956625 -s 25 -d -1 -p AODV -e 48 -c 2 -a 0 -i 0 -k RTR
+ -t 2.561315072 -s 37 -d -1 -p AODV -e 48 -c 2 -a 0 -i 0 -k RTR 
- -t 2.561315072 -s 37 -d -1 -p AODV -e 48 -c 2 -a 0 -i 0 -k RTR
h -t 2.561315072 -s 37 -d -1 -p AODV -e 48 -c 2 -a 0 -i 0 -k RTR
+ -t 2.562064166 -s 21 -d -1 -p AODV -e 48 -c 2 -a 0 -i 0 -k RTR 
- -t 2.562064166 -s 21 -d -1 -p AODV -e 48 -c 2 -a 0 -i 0 -k RTR
h -t 2.562064166 -s 21 -d -1 -p AODV -e 48 -c 2 -a 0 -i 0 -k RTR
+ -t 2.562238650 -s 28 -d -1 -p AODV -e 48 -c 2 -a 0 -i 0 -k RTR 
- -t 2.562238650 -s 28 -d -1 -p AODV -e 48 -c 2 -a 0 -i 0 -k RTR
h -t 2.562238650 -s 28 -d -1 -p AODV -e 48 -c 2 -a 0 -i 0 -k RTR
r -t 2.562743969 -s 1 -d -1 -p AODV -e 48 -c 2 -a 0 -i 0 -k RTR
r -t 2.562743979 -s 49 -d -1 -p AODV -e 48 -c 2 -a 0 -i 0 -k RTR
r -t 2.562743996 -s 28 -d -1 -p AODV -e 48 -c 2 -a 0 -i 0 -k RTR
r -t 2.562744034 -s 18 -d -1 -p AODV -e 48 -c 2 -a 0 -i 0 -k RTR
r -t 2.562744191 -s 2 -d -1 -p AODV -e 48 -c 2 -a 0 -i 0 -k RTR
r -t 2.562744194 -s 38 -d -1 -p AODV -e 48 -c 2 -a 0 -i 0 -k RTR
r -t 2.562744272 -s 5 -d -1 -p AODV -e 48 -c 2 -a 0 -i 0 -k RTR
r -t 2.562744284 -s 9 -d -1 -p AODV -e 48 -c 2 -a 0 -i 0 -k RTR
r -t 2.562744294 -s 4 -d -1 -p AODV -e 48 -c 2 -a 0 -i 0 -k RTR
r -t 2.562744310 -s 32 -d -1 -p AODV -e 48 -c 2 -a 0 -i 0 -k RTR
r -t 2.562744321 -s 34 -d -1 -p AODV -e 48 -c 2 -a 0 -i 0 -k RTR
r -t 2.562744362 -s 20 -d -1 -p AODV -e 48 -c 2 -a 0 -i 0 -k RTR
r -t 2.562744388 -s 36 -d -1 -p AODV -e 48 -c 2 -a 0 -i 0 -k RTR
r -t 2.562744564 -s 21 -d -1 -p AODV -e 48 -c 2 -a 0 -i 0 -k RTR
r -t 2.562744661 -s 3 -d -1 -p AODV -e 48 -c 2 -a 0 -i 0 -k RTR
r -t 2.562744661 -s 48 -d -1 -p AODV -e 48 -c 2 -a 0 -i 0 -k RTR
r -t 2.562744663 -s 44 -d -1 -p AODV -e 48 -c 2 -a 0 -i 0 -k RTR
r -t 2.562744671 -s 16 -d -1 -p AODV -e 48 -c 2 -a 0 -i 0 -k RTR
+ -t 2.563328687 -s 48 -d -1 -p AODV -e 48 -c 2 -a 0 -i 0 -k RTR 
- -t 2.563328687 -s 48 -d -1 -p AODV -e 48 -c 2 -a 0 -i 0 -k RTR
h -t 2.563328687 -s 48 -d -1 -p AODV -e 48 -c 2 -a 0 -i 0 -k RTR
r -t 2.563682403 -s 34 -d -1 -p AODV -e 48 -c 2 -a 0 -i 0 -k RTR
r -t 2.563682528 -s 4 -d -1 -p AODV -e 48 -c 2 -a 0 -i 0 -k RTR
r -t 2.563682531 -s 38 -d -1 -p AODV -e 48 -c 2 -a 0 -i 0 -k RTR
r -t 2.563682566 -s 5 -d -1 -p AODV -e 48 -c 2 -a 0 -i 0 -k RTR
r -t 2.563682664 -s 44 -d -1 -p AODV -e 48 -c 2 -a 0 -i 0 -k RTR
r -t 2.563682699 -s 18 -d -1 -p AODV -e 48 -c 2 -a 0 -i 0 -k RTR
r -t 2.563682731 -s 28 -d -1 -p AODV -e 48 -c 2 -a 0 -i 0 -k RTR
r -t 2.563682746 -s 14 -d -1 -p AODV -e 48 -c 2 -a 0 -i 0 -k RTR
r -t 2.563682750 -s 49 -d -1 -p AODV -e 48 -c 2 -a 0 -i 0 -k RTR
r -t 2.563682754 -s 16 -d -1 -p AODV -e 48 -c 2 -a 0 -i 0 -k RTR
r -t 2.563682763 -s 9 -d -1 